# LAMMPS data file written by Ovito 3.10.3

108 atoms
7 atom types
1 bond types
1 angle types

2 extra bond per atom
1 extra angle per atom
2 extra special per atom

-10.0 20.8064 xlo xhi
-10.0 21.2919956072 ylo yhi
-10.0 23.0825020677 zlo zhi
#2.809220296 -4.90332225 2.8971407552e-05 xy xz yz

Masses

1 58.9332  # Co
2 1.00794  # H
3 12.0107  # C
4 14.0067  # N
5 15.9994  # O
6 12.0107  # C
7 15.9994  # O

Atoms  # full

1 1 1 0.0 7.3562038767 9.0581983825 3.2551881645
2 1 1 0.0 5.9907305874 3.9516333817 9.7846649465
3 1 1 0.0 1.0483323151 3.9122151329 9.8273139032
4 1 1 0.0 2.4922013519 9.0976168201 3.2978371212
5 1 2 0.0 9.7074079941 7.897051874 1.6457787601
6 1 2 0.0 5.2402459647 6.58484728 12.8653325334
7 1 2 0.0 1.2380736968 6.3254876058 12.2399889345
8 1 2 0.0 5.8373408618 7.6366630814 1.0570661671
9 1 2 0.0 7.4936867103 5.0502985322 7.3549826625
10 1 2 0.0 7.1516567409 6.297684141 5.4318548585
11 1 2 0.0 3.2208669774 6.5549861808 6.4025765119
12 1 2 0.0 3.6761965136 5.2592281116 8.2890733101
13 1 2 0.0 3.9206739655 1.7177430016 4.0346436377
14 1 2 0.0 3.5702636945 3.0495313703 5.9028249329
15 1 2 0.0 6.9645474963 10.1139623236 8.2367433018
16 1 2 0.0 7.1823269336 8.8315754701 6.339780502
17 1 2 0.0 5.9057766074 4.1837247859 12.9019635392
18 1 2 0.0 1.2536465572 2.904405002 1.7347397742
19 1 2 0.0 0.2793265588 10.0882416923 12.4623914697
20 1 2 0.0 -3.0129521094 1.1053838298 10.6125256773
21 1 2 0.0 3.3995063542 2.7510757526 11.4367233076
22 1 2 0.0 8.738954008 1.4388214668 0.2171695343
23 1 2 0.0 4.736770053 1.1794645623 0.8425131332
24 1 2 0.0 -0.4705717806 2.4906895675 12.0254359006
25 1 2 0.0 3.9951120662 10.1962927317 5.7275194052
26 1 2 0.0 0.8438258593 1.1516912509 7.6506472092
27 1 2 0.0 6.7194542377 1.4089889914 6.6799255558
28 1 2 0.0 7.1748190308 0.1132225668 4.7934287576
29 1 2 0.0 0.4220372673 6.8637519071 9.04785843
30 1 2 0.0 0.0716619109 8.1955320015 7.1796771348
31 1 2 0.0 0.6567690355 4.9679570106 4.8457587659
32 1 2 0.0 0.8745130203 3.6855785588 6.7427215657
33 1 2 0.0 12.2137056313 9.3296944177 0.1805385285
34 1 2 0.0 7.5613668759 8.0504240937 11.3477622935
35 1 2 0.0 3.7780270715 4.9422176638 0.620110598
36 1 2 0.0 3.294934127 6.2513636016 2.4699763904
37 1 3 0.0 8.9761791328 7.5677068893 1.1376543798
38 1 3 0.0 9.2476920258 6.794775541 0.0185771529
39 1 3 0.0 3.2804702499 6.3316629973 12.3276416984
40 1 3 0.0 1.9886242368 6.6393945618 12.7321526623
41 1 3 0.0 6.7215823638 7.4164137838 0.7899214748
42 1 3 0.0 3.5373659443 5.4908042184 11.091345253
43 1 3 0.0 6.6187613566 5.3621455651 7.1590067815
44 1 3 0.0 6.424724655 6.1134587094 6.0142878506
45 1 3 0.0 5.1664889043 6.5910066734 5.7288276554
46 1 3 0.0 4.1064519801 6.2606355086 6.5841616406
47 1 3 0.0 4.3902734631 5.4897675205 7.7053320678
48 1 3 0.0 4.9051626384 7.4730280345 4.5265457154
49 1 3 0.0 3.9510620899 1.3225322795 4.8967805239
50 1 3 0.0 3.7476529254 2.1222227985 6.0077465995
51 1 3 0.0 3.8029960899 1.5633702461 7.276226
52 1 3 0.0 4.0745127555 0.2264402484 7.3808860166
53 1 3 0.0 7.0402458143 9.7660884632 6.2458481372
54 1 3 0.0 3.5413350792 2.401141424 8.5114758453
55 1 3 0.0 -3.6503736902 3.2718537712 12.8098627246
56 1 3 0.0 1.4251301468 2.5194824825 0.8841154897
57 1 3 0.0 1.8522999034 1.1959316278 0.7849501241
58 1 3 0.0 -2.8454432786 0.684445565 12.5793490382
59 1 3 0.0 -3.1051470465 1.486189584 11.4780640141
60 1 3 0.0 2.0971086491 0.3324358676 1.9911568147
61 1 3 0.0 2.6682679965 2.4217330184 11.9448476879
62 1 3 0.0 2.939759975 1.6488066265 13.0639249148
63 1 3 0.0 6.7791682443 1.1856395656 0.7548603693
64 1 3 0.0 5.4873297911 1.4933693385 0.3503494054
65 1 3 0.0 0.4136647287 2.2704414531 12.2925805929
66 1 3 0.0 7.0360408335 0.3447862623 1.9911568147
67 1 3 0.0 0.3109627539 0.2161450254 5.9234952862
68 1 3 0.0 0.1169046586 0.9674632397 7.0682142171
69 1 3 0.0 -1.1413364272 1.4450124681 7.3536744123
70 1 3 0.0 7.605042634 1.1146375149 6.4983404271
71 1 3 0.0 -1.9175149293 0.3437645611 5.3771699999
72 1 3 0.0 -1.4026851626 2.3270391541 8.5559563523
73 1 3 0.0 0.4524415042 6.4685373665 8.1857215438
74 1 3 0.0 0.2490531027 7.268222965 7.0747554682
75 1 3 0.0 0.304419974 6.7093647944 5.8062760677
76 1 3 0.0 0.5759385955 5.3724343333 5.7016160511
77 1 3 0.0 0.7324301455 4.6200919679 6.8366539305
78 1 3 0.0 9.8491820489 7.5471305014 4.5710262225
79 1 3 0.0 2.6575536124 8.4178238109 0.2726393431
80 1 3 0.0 -2.0735654319 7.6655053418 12.198386578
81 1 3 0.0 -1.6463975286 6.3419549263 12.2975519436
82 1 3 0.0 3.4624797159 5.8304166257 0.5031530295
83 1 3 0.0 3.202755366 6.6321655223 1.6044380536
84 1 3 0.0 -1.40156624 5.4784538237 11.091345253
85 1 4 0.0 7.7466702073 7.8702924328 1.5316993421
86 1 4 0.0 5.6213631462 5.0564751648 8.0030898149
87 1 4 0.0 7.0023850354 10.2848022837 5.0003939403
88 1 4 0.0 -3.4844239454 2.7840104335 11.5699031786
89 1 4 0.0 1.4387664354 2.7243168167 11.5508027256
90 1 4 0.0 2.1228006146 10.2024664939 5.0794122528
91 1 4 0.0 0.6945460902 5.1388113046 8.0821081274
92 1 4 0.0 2.8234801835 7.929985965 1.5125988891
93 1 5 0.0 4.7310030756 5.1789562903 10.8830718201
94 1 5 0.0 2.5324543179 5.2365903451 10.3770406401
95 1 5 0.0 5.8502589034 7.7128297898 3.7397640411
96 1 5 0.0 3.7261779246 7.8960287857 4.4054017463
97 1 5 0.0 4.4535949049 2.5853699885 9.3437846268
98 1 5 0.0 2.3495896456 2.8097338674 8.6098562608
99 1 5 0.0 1.1560328335 0.2295177535 2.8229422962
100 1 5 0.0 6.04548543 10.1417370048 2.0471499236
101 1 5 0.0 8.2296740723 0.0329392566 2.1994302476
102 1 5 0.0 6.0311158573 0.0905755526 2.7054614276
103 1 5 0.0 -0.4576036018 2.5668443941 9.3427380266
104 1 5 0.0 7.2247278595 2.7500404418 8.6771003214
105 1 5 0.0 0.9550574297 7.7313553796 3.7387174409
106 1 5 0.0 8.657438454 7.9557225091 4.4726458069
107 1 5 0.0 -2.3426265103 5.3755320256 10.2595597715
108 1 5 0.0 -0.2624087087 4.9957591057 11.0353521442
